TITLE     = "flagged cvs"
VARIABLES = "Y"
"press"
"temp"
"kine"
"omega"
"vel-X"
"vel-Y"
ZONE T="Extracted Points"
 STRANDID=0, SOLUTIONTIME=0
 I=299, J=1, K=1, ZONETYPE=Ordered
 DATAPACKING=POINT
 DT=(SINGLE SINGLE SINGLE SINGLE SINGLE SINGLE SINGLE )
 1.195328087E-01 1.219667109E+05 7.561462402E+02 2.213322144E+02 6.092951600E+07 3.626033020E+02 -1.219796762E-02
 1.195656210E-01 1.216004766E+05 1.221800781E+03 1.945766724E+03 3.116869600E+07 8.896694946E+02 -6.958854944E-02
 1.195984259E-01 1.210770859E+05 1.384208130E+03 4.867694824E+03 1.504075300E+07 1.153086792E+03 -7.825469226E-02
 1.196312383E-01 1.208858672E+05 1.449640137E+03 6.096569824E+03 8.832315000E+06 1.284332031E+03 -7.735291147E-04
 1.196640432E-01 1.209520391E+05 1.486461914E+03 5.871845703E+03 6.307886500E+06 1.367943726E+03 8.087685704E-02
 1.196968555E-01 1.210949531E+05 1.511554321E+03 5.182231934E+03 4.908701000E+06 1.430854614E+03 1.813727617E-01
 1.197296679E-01 1.212619375E+05 1.530073120E+03 4.314733887E+03 3.967235250E+06 1.481696045E+03 2.865607142E-01
 1.197624728E-01 1.214286094E+05 1.544089478E+03 3.413921143E+03 3.256762000E+06 1.523980957E+03 3.810197413E-01
 1.197952852E-01 1.215788281E+05 1.554120361E+03 2.582686035E+03 2.711122000E+06 1.558551758E+03 4.521880448E-01
 1.198280901E-01 1.217047422E+05 1.560627319E+03 1.878045288E+03 2.275728500E+06 1.586440796E+03 4.964932799E-01
 1.198609024E-01 1.218057812E+05 1.563850220E+03 1.305048584E+03 1.912344000E+06 1.609063477E+03 5.177378058E-01
 1.198937148E-01 1.218843047E+05 1.563923340E+03 8.513465576E+02 1.589549375E+06 1.627935669E+03 5.209829807E-01
 1.199265197E-01 1.219432969E+05 1.561030640E+03 5.072198486E+02 1.312077125E+06 1.643869629E+03 5.100199580E-01
 1.199593320E-01 1.219854922E+05 1.555468140E+03 2.600606689E+02 1.078760500E+06 1.657389282E+03 4.885691702E-01
 1.199921370E-01 1.220033359E+05 1.546197266E+03 1.563549347E+02 9.648823750E+05 1.667646118E+03 4.528778791E-01
 1.200249493E-01 1.220155703E+05 1.536306396E+03 8.279277802E+01 8.816563125E+05 1.677231689E+03 4.124565721E-01
 1.200577617E-01 1.220167578E+05 1.525385620E+03 6.610768890E+01 8.614135625E+05 1.685576904E+03 3.635072708E-01
 1.200905666E-01 1.220159844E+05 1.514623169E+03 5.604793549E+01 8.471707500E+05 1.693742676E+03 3.104432225E-01
 1.201233789E-01 1.220120547E+05 1.504123291E+03 5.657200623E+01 8.423241875E+05 1.701627075E+03 2.530906200E-01
 1.201561838E-01 1.220076719E+05 1.493895142E+03 5.738363266E+01 8.359970625E+05 1.709360596E+03 1.938427687E-01
 1.201889962E-01 1.220020625E+05 1.484422241E+03 5.887905121E+01 8.253513125E+05 1.716678101E+03 1.328883767E-01
 1.202218086E-01 1.219964531E+05 1.474949707E+03 6.037783813E+01 8.147091875E+05 1.723995605E+03 7.153001428E-02
 1.202546135E-01 1.219897188E+05 1.466699829E+03 6.180886459E+01 8.005246250E+05 1.730331421E+03 7.988467813E-03
 1.202874258E-01 1.219828594E+05 1.458592896E+03 6.322242355E+01 7.859185000E+05 1.736552368E+03 -5.450143293E-02
 1.203202307E-01 1.219756641E+05 1.450832275E+03 6.489044189E+01 7.714013750E+05 1.742453369E+03 -1.188316569E-01
 1.203530431E-01 1.219674219E+05 1.444181519E+03 6.734597778E+01 7.571554375E+05 1.747328247E+03 -1.849472076E-01
 1.203858554E-01 1.219591797E+05 1.437529785E+03 6.979156494E+01 7.429138750E+05 1.752203857E+03 -2.497428805E-01
 1.204186603E-01 1.219502656E+05 1.431145020E+03 7.278246307E+01 7.287407500E+05 1.756817993E+03 -3.180024624E-01
 1.204514727E-01 1.219394219E+05 1.425533447E+03 7.732808685E+01 7.147799375E+05 1.760674438E+03 -3.923246861E-01
 1.204842776E-01 1.219285938E+05 1.419920898E+03 8.186098480E+01 7.008457500E+05 1.764531738E+03 -4.649067819E-01
 1.205170900E-01 1.219177500E+05 1.414309204E+03 8.640661621E+01 6.868850000E+05 1.768388184E+03 -5.392289758E-01
 1.205499023E-01 1.219066484E+05 1.410432983E+03 9.184321594E+01 6.748018125E+05 1.770955200E+03 -6.065011621E-01
 1.205827072E-01 1.218955156E+05 1.406725830E+03 9.736662292E+01 6.629015000E+05 1.773396484E+03 -6.730864644E-01
 1.206155196E-01 1.218843906E+05 1.403017822E+03 1.028759308E+02 6.510550625E+05 1.775838623E+03 -7.375599146E-01
 1.206483245E-01 1.218732578E+05 1.399310669E+03 1.083993378E+02 6.391548125E+05 1.778279907E+03 -8.041452169E-01
 1.206811368E-01 1.218616797E+05 1.395685791E+03 1.141742020E+02 6.270727500E+05 1.780659790E+03 -8.718775511E-01
 1.207139492E-01 1.218476719E+05 1.392504150E+03 1.213046341E+02 6.140109375E+05 1.782707886E+03 -9.457936883E-01
 1.207467541E-01 1.218336562E+05 1.389322388E+03 1.284319305E+02 6.009660000E+05 1.784756104E+03 -1.019154072E+00
 1.207795665E-01 1.218196406E+05 1.386140137E+03 1.355528717E+02 5.879553125E+05 1.786804565E+03 -1.091391325E+00
 1.208123714E-01 1.218056250E+05 1.382958618E+03 1.426833038E+02 5.748934375E+05 1.788852661E+03 -1.165307403E+00
 1.208451837E-01 1.217908125E+05 1.379969238E+03 1.498851318E+02 5.622595625E+05 1.790770264E+03 -1.239614129E+00
 1.208779961E-01 1.217748047E+05 1.377266479E+03 1.571932831E+02 5.502629375E+05 1.792493774E+03 -1.314502597E+00
 1.209108010E-01 1.217587734E+05 1.374563477E+03 1.644965820E+02 5.382990625E+05 1.794217407E+03 -1.388262033E+00
 1.209436134E-01 1.217427500E+05 1.371860596E+03 1.718003998E+02 5.263316875E+05 1.795941162E+03 -1.462140441E+00
 1.209764183E-01 1.217267422E+05 1.369157715E+03 1.791085358E+02 5.143350938E+05 1.797664551E+03 -1.537028909E+00
 1.210092306E-01 1.217095938E+05 1.366689209E+03 1.860151978E+02 5.038907812E+05 1.799264526E+03 -1.611871243E+00
 1.210420430E-01 1.216918203E+05 1.364348511E+03 1.927030029E+02 4.942926562E+05 1.800796997E+03 -1.686688423E+00
 1.210748479E-01 1.216740000E+05 1.362007690E+03 1.993856049E+02 4.847315000E+05 1.802329834E+03 -1.759887815E+00
 1.211076602E-01 1.216562188E+05 1.359666870E+03 2.060721588E+02 4.751422188E+05 1.803862427E+03 -1.834318042E+00
 1.211404651E-01 1.216384453E+05 1.357326050E+03 2.127599640E+02 4.655440625E+05 1.805395020E+03 -1.909135222E+00
 1.211732775E-01 1.216192109E+05 1.355331177E+03 2.187203979E+02 4.582006875E+05 1.806768555E+03 -1.982859135E+00
 1.212060899E-01 1.215997969E+05 1.353377930E+03 2.245931702E+02 4.511290312E+05 1.808122925E+03 -2.056451321E+00
 1.212388948E-01 1.215802734E+05 1.351424561E+03 2.304602356E+02 4.440872812E+05 1.809477417E+03 -2.128151417E+00
 1.212717071E-01 1.215608672E+05 1.349471313E+03 2.363330078E+02 4.370156250E+05 1.810831909E+03 -2.201743603E+00
 1.213045120E-01 1.215412344E+05 1.347570801E+03 2.421164551E+02 4.302099688E+05 1.812155884E+03 -2.275010824E+00
 1.213373244E-01 1.215202188E+05 1.346000244E+03 2.473404541E+02 4.250699688E+05 1.813289917E+03 -2.346243143E+00
 1.213701367E-01 1.214991562E+05 1.344429688E+03 2.525631104E+02 4.199342812E+05 1.814423828E+03 -2.417042255E+00
 1.214029416E-01 1.214779766E+05 1.342858765E+03 2.577825928E+02 4.148089688E+05 1.815557983E+03 -2.486802816E+00
 1.214357540E-01 1.214569609E+05 1.341288330E+03 2.630065918E+02 4.096689688E+05 1.816691895E+03 -2.558035135E+00
 1.214685589E-01 1.214352891E+05 1.339843262E+03 2.681018982E+02 4.050104688E+05 1.817733398E+03 -2.627744198E+00
 1.215013713E-01 1.214125781E+05 1.338600342E+03 2.729898071E+02 4.011278438E+05 1.818625732E+03 -2.694998741E+00
 1.215341836E-01 1.213896719E+05 1.337357178E+03 2.778748169E+02 3.972517812E+05 1.819518433E+03 -2.761178493E+00
 1.215669885E-01 1.213667656E+05 1.336113892E+03 2.827598877E+02 3.933755312E+05 1.820411133E+03 -2.827384949E+00
 1.215998009E-01 1.213440547E+05 1.334870972E+03 2.876478271E+02 3.894929062E+05 1.821303467E+03 -2.894639492E+00
 1.216326058E-01 1.213201406E+05 1.333795410E+03 2.925197754E+02 3.860821250E+05 1.822062012E+03 -2.958011627E+00
 1.216654181E-01 1.212955156E+05 1.332818726E+03 2.973822632E+02 3.829505938E+05 1.822741211E+03 -3.019085646E+00
 1.216982305E-01 1.212704297E+05 1.331840942E+03 3.022402954E+02 3.798269062E+05 1.823421265E+03 -3.078251839E+00
 1.217310354E-01 1.212456875E+05 1.330864014E+03 3.071015625E+02 3.766975312E+05 1.824100708E+03 -3.138804436E+00
 1.217638478E-01 1.212210625E+05 1.329887329E+03 3.119640503E+02 3.735660000E+05 1.824779907E+03 -3.199878454E+00
 1.217966527E-01 1.211947031E+05 1.329086670E+03 3.169645996E+02 3.708353125E+05 1.825316895E+03 -3.253830433E+00
 1.218294650E-01 1.211680938E+05 1.328311646E+03 3.219851685E+02 3.681626875E+05 1.825833130E+03 -3.306750298E+00
 1.218622774E-01 1.211407969E+05 1.327534790E+03 3.270000000E+02 3.654986250E+05 1.826350586E+03 -3.357349873E+00
 1.218950823E-01 1.211141875E+05 1.326759644E+03 3.320205383E+02 3.628260312E+05 1.826866821E+03 -3.410269976E+00
 1.219278947E-01 1.210873984E+05 1.326001953E+03 3.370651245E+02 3.601927188E+05 1.827369629E+03 -3.462250710E+00
 1.219606996E-01 1.210593438E+05 1.325373047E+03 3.422879639E+02 3.578510625E+05 1.827771973E+03 -3.507258654E+00
 1.219935119E-01 1.210311875E+05 1.324743896E+03 3.475096741E+02 3.555110312E+05 1.828174438E+03 -3.552073717E+00
 1.220263243E-01 1.210027422E+05 1.324114014E+03 3.527281494E+02 3.531754688E+05 1.828577393E+03 -3.596338034E+00
 1.220591292E-01 1.209746797E+05 1.323485107E+03 3.579509888E+02 3.508338438E+05 1.828979736E+03 -3.641345978E+00
 1.220919415E-01 1.209466953E+05 1.322896484E+03 3.632474670E+02 3.485921562E+05 1.829355103E+03 -3.685214996E+00
 1.221247464E-01 1.209188359E+05 1.322378052E+03 3.686726379E+02 3.465250938E+05 1.829683228E+03 -3.727093697E+00
 1.221575588E-01 1.208910703E+05 1.321859985E+03 3.740955200E+02 3.444614688E+05 1.830011230E+03 -3.770084143E+00
 1.221903712E-01 1.208633047E+05 1.321341797E+03 3.795182495E+02 3.423980625E+05 1.830339233E+03 -3.813144207E+00
 1.222231761E-01 1.208354453E+05 1.320823486E+03 3.849434204E+02 3.403310000E+05 1.830667480E+03 -3.855023146E+00
 1.222559884E-01 1.208092891E+05 1.320356567E+03 3.904858093E+02 3.384160000E+05 1.830964844E+03 -3.900349855E+00
 1.222887933E-01 1.207842188E+05 1.319922852E+03 3.961033936E+02 3.365985312E+05 1.831242432E+03 -3.947888374E+00
 1.223216057E-01 1.207599453E+05 1.319491211E+03 4.017178650E+02 3.347860312E+05 1.831518677E+03 -4.000166416E+00
 1.223544180E-01 1.207351172E+05 1.319058228E+03 4.073344727E+02 3.329700938E+05 1.831795898E+03 -4.049171448E+00
 1.223872229E-01 1.207100469E+05 1.318624390E+03 4.129520569E+02 3.311526250E+05 1.832073486E+03 -4.096709728E+00
 1.224200353E-01 1.206886250E+05 1.318244507E+03 4.186910400E+02 3.295402812E+05 1.832318726E+03 -4.153112888E+00
 1.224528402E-01 1.206678281E+05 1.317873657E+03 4.244507141E+02 3.279628438E+05 1.832558350E+03 -4.211025715E+00
 1.224856526E-01 1.206480312E+05 1.317505493E+03 4.302053528E+02 3.263907188E+05 1.832796387E+03 -4.275187969E+00
 1.225184649E-01 1.206272344E+05 1.317134644E+03 4.359650269E+02 3.248132812E+05 1.833036011E+03 -4.333100796E+00
 1.225512698E-01 1.206064453E+05 1.316767700E+03 4.417323303E+02 3.232579688E+05 1.833273438E+03 -4.390294552E+00
 1.225840822E-01 1.205857656E+05 1.316435181E+03 4.475687561E+02 3.219020938E+05 1.833489990E+03 -4.440998077E+00
 1.226168871E-01 1.205647500E+05 1.316101685E+03 4.534034424E+02 3.205468125E+05 1.833707153E+03 -4.490695953E+00
 1.226496994E-01 1.205425781E+05 1.315765137E+03 4.592322693E+02 3.191936250E+05 1.833926514E+03 -4.536944389E+00
 1.226825118E-01 1.205218984E+05 1.315432617E+03 4.650686951E+02 3.178377500E+05 1.834143066E+03 -4.587647915E+00
 1.227153167E-01 1.204960078E+05 1.315097290E+03 4.709186707E+02 3.165473125E+05 1.834361816E+03 -4.614513397E+00
 1.227481291E-01 1.204602266E+05 1.314756714E+03 4.767943726E+02 3.153810938E+05 1.834584595E+03 -4.596116543E+00
 1.227809340E-01 1.204202500E+05 1.314404785E+03 4.826650696E+02 3.142161562E+05 1.834814819E+03 -4.561270237E+00
 1.228137463E-01 1.203796016E+05 1.314051147E+03 4.885349426E+02 3.130514062E+05 1.835046265E+03 -4.523806095E+00
 1.228465587E-01 1.203438203E+05 1.313710449E+03 4.944106750E+02 3.118852188E+05 1.835269043E+03 -4.505409718E+00
 1.228793636E-01 1.202831641E+05 1.313320801E+03 5.003040466E+02 3.108123438E+05 1.835524048E+03 -4.381522179E+00
 1.229121760E-01 1.202052344E+05 1.312897095E+03 5.062097168E+02 3.098042188E+05 1.835801270E+03 -4.184396267E+00
 1.229449809E-01 1.201129375E+05 1.312435181E+03 5.121079102E+02 3.087986562E+05 1.836103638E+03 -3.928943396E+00
 1.229777932E-01 1.200300156E+05 1.311998291E+03 5.180109253E+02 3.077914062E+05 1.836389526E+03 -3.711549759E+00
 1.230106056E-01 1.199520859E+05 1.311574585E+03 5.239165649E+02 3.067833125E+05 1.836666870E+03 -3.514424086E+00
 1.230434105E-01 1.198174062E+05 1.311022583E+03 5.298493652E+02 3.058859062E+05 1.837027954E+03 -3.080163956E+00
 1.230762228E-01 1.196715469E+05 1.310445435E+03 5.357875366E+02 3.050103125E+05 1.837405396E+03 -2.599208117E+00
 1.231090277E-01 1.195006328E+05 1.309802124E+03 5.417135010E+02 3.041384062E+05 1.837825806E+03 -2.014700890E+00
 1.231418401E-01 1.193547734E+05 1.309224854E+03 5.476516113E+02 3.032627812E+05 1.838203369E+03 -1.533744931E+00
 1.231746525E-01 1.192042578E+05 1.308637451E+03 5.535924683E+02 3.023961875E+05 1.838587524E+03 -1.033316970E+00
 1.232074574E-01 1.190006484E+05 1.307932617E+03 5.595641479E+02 3.016323750E+05 1.839047485E+03 -3.111672997E-01
 1.232402697E-01 1.187953125E+05 1.307223389E+03 5.655322876E+02 3.008688750E+05 1.839510010E+03 4.183572531E-01
 1.232730746E-01 1.185827500E+05 1.306496216E+03 5.714860229E+02 3.001068438E+05 1.839984009E+03 1.178496599E+00
 1.233058870E-01 1.183791484E+05 1.305791382E+03 5.774577026E+02 2.993430000E+05 1.840443848E+03 1.900646210E+00
 1.233386993E-01 1.181883438E+05 1.305129761E+03 5.834670410E+02 2.986154375E+05 1.840875366E+03 2.568404675E+00
 1.233715042E-01 1.180240078E+05 1.304557495E+03 5.895541992E+02 2.979628125E+05 1.841248047E+03 3.123702526E+00
 1.234043166E-01 1.178778281E+05 1.304035889E+03 5.956662598E+02 2.973176250E+05 1.841587769E+03 3.603014946E+00
 1.234371215E-01 1.177364688E+05 1.303527588E+03 6.017848511E+02 2.966743438E+05 1.841918823E+03 4.062208176E+00
 1.234699339E-01 1.175721250E+05 1.302955322E+03 6.078720703E+02 2.960217500E+05 1.842291504E+03 4.617505550E+00
 1.235027388E-01 1.175542031E+05 1.302798828E+03 6.144592896E+02 2.955020625E+05 1.842402100E+03 4.564148426E+00
 1.235355511E-01 1.176461719E+05 1.302954346E+03 6.214219360E+02 2.950821250E+05 1.842315918E+03 4.053942204E+00
 1.235683635E-01 1.178340078E+05 1.303374878E+03 6.287550659E+02 2.947320938E+05 1.842063721E+03 3.149651051E+00
 1.236011684E-01 1.179631562E+05 1.303633179E+03 6.358614502E+02 2.943392812E+05 1.841913086E+03 2.486583710E+00
 1.236339808E-01 1.180551328E+05 1.303788574E+03 6.428240356E+02 2.939193438E+05 1.841826904E+03 1.976377368E+00
 1.236667857E-01 1.185981250E+05 1.305164795E+03 6.524186401E+02 2.939942500E+05 1.840946655E+03 -3.488280177E-01
 1.236995980E-01 1.192424922E+05 1.306815552E+03 6.626048584E+02 2.941803438E+05 1.839887817E+03 -3.081966400E+00
 1.237324104E-01 1.201198594E+05 1.309073242E+03 6.743740845E+02 2.946383750E+05 1.838420166E+03 -6.733408928E+00
 1.237652153E-01 1.207643438E+05 1.310724243E+03 6.845610352E+02 2.948246250E+05 1.837361084E+03 -9.467012405E+00
 1.237980276E-01 1.214552031E+05 1.312490356E+03 6.951491089E+02 2.950756250E+05 1.836219604E+03 -1.237542439E+01
 1.238308325E-01 1.228526328E+05 1.316011475E+03 7.118449707E+02 2.963128750E+05 1.833820312E+03 -1.794741631E+01
 1.238636449E-01 1.242858594E+05 1.319615479E+03 7.288781738E+02 2.976015625E+05 1.831357910E+03 -2.364755058E+01
 1.238964573E-01 1.259013828E+05 1.323641968E+03 7.476294556E+02 2.991522812E+05 1.828573242E+03 -3.000042915E+01
 1.239292622E-01 1.272988125E+05 1.327163086E+03 7.643253174E+02 3.003895312E+05 1.826174072E+03 -3.557242203E+01
 1.239620745E-01 1.288681719E+05 1.331050171E+03 7.829476318E+02 3.018751562E+05 1.823477783E+03 -4.169679642E+01
 1.239948794E-01 1.308256328E+05 1.335763550E+03 8.059188232E+02 3.039214375E+05 1.820111084E+03 -4.906812668E+01
 1.240276918E-01 1.328228438E+05 1.340536255E+03 8.293609009E+02 3.060069062E+05 1.816683838E+03 -5.652850342E+01
 1.240605041E-01 1.348352188E+05 1.345331787E+03 8.529825439E+02 3.081073125E+05 1.813233643E+03 -6.402282715E+01
 1.240933090E-01 1.367926719E+05 1.350045044E+03 8.759537354E+02 3.101536250E+05 1.809866943E+03 -7.139416504E+01
 1.241261214E-01 1.387056406E+05 1.354520264E+03 8.991627808E+02 3.120602812E+05 1.806611328E+03 -7.838837433E+01
 1.241589263E-01 1.405825469E+05 1.358802124E+03 9.225646362E+02 3.138537500E+05 1.803445801E+03 -8.507682800E+01
 1.241917387E-01 1.423487188E+05 1.362766235E+03 9.449868164E+02 3.154470938E+05 1.800488770E+03 -9.129518127E+01
 1.242245510E-01 1.441779062E+05 1.366911255E+03 9.679666138E+02 3.171543438E+05 1.797413086E+03 -9.778112030E+01
 1.242573559E-01 1.460548125E+05 1.371193237E+03 9.913684692E+02 3.189478125E+05 1.794247681E+03 -1.044695740E+02
 1.242901683E-01 1.473970781E+05 1.374101440E+03 1.010187805E+03 3.200117812E+05 1.792025513E+03 -1.091202621E+02
 1.243229732E-01 1.486035938E+05 1.376660889E+03 1.027843506E+03 3.208905000E+05 1.790042847E+03 -1.132535095E+02
 1.243557855E-01 1.495347344E+05 1.378556641E+03 1.043296875E+03 3.214340312E+05 1.788532593E+03 -1.164293900E+02
 1.243885979E-01 1.507350156E+05 1.381101074E+03 1.060902710E+03 3.223051562E+05 1.786560669E+03 -1.205409927E+02
 1.244214028E-01 1.519082031E+05 1.383584106E+03 1.078305542E+03 3.231550000E+05 1.784634644E+03 -1.245599136E+02
 1.244542152E-01 1.523352344E+05 1.384358032E+03 1.090046021E+03 3.233573750E+05 1.783974609E+03 -1.260188675E+02
 1.244870201E-01 1.527343594E+05 1.385071289E+03 1.101625732E+03 3.235385000E+05 1.783361572E+03 -1.273876419E+02
 1.245198324E-01 1.529555469E+05 1.385397827E+03 1.112180176E+03 3.235837812E+05 1.783048828E+03 -1.281812897E+02
 1.245526448E-01 1.533825781E+05 1.386171753E+03 1.123920654E+03 3.237861875E+05 1.782388794E+03 -1.296402283E+02
 1.245854497E-01 1.536546250E+05 1.386620483E+03 1.134779663E+03 3.239330625E+05 1.781989502E+03 -1.305832367E+02
 1.246182621E-01 1.535435625E+05 1.386265259E+03 1.143459961E+03 3.239426875E+05 1.782235107E+03 -1.302507172E+02
 1.246510670E-01 1.533821250E+05 1.385807617E+03 1.151950073E+03 3.239351875E+05 1.782564941E+03 -1.297586212E+02
 1.246838793E-01 1.531950000E+05 1.385297607E+03 1.160343018E+03 3.239189688E+05 1.782937744E+03 -1.291850433E+02
 1.247166917E-01 1.530839219E+05 1.384942383E+03 1.169023315E+03 3.239285938E+05 1.783183350E+03 -1.288525238E+02
 1.247494966E-01 1.528449844E+05 1.384331421E+03 1.176585083E+03 3.240066562E+05 1.783640869E+03 -1.280847931E+02
 1.247823089E-01 1.524941094E+05 1.383496704E+03 1.183167725E+03 3.241446250E+05 1.784284180E+03 -1.269361115E+02
 1.248151138E-01 1.521174531E+05 1.382610107E+03 1.189631226E+03 3.242839688E+05 1.784968262E+03 -1.257077103E+02
 1.248479262E-01 1.517543125E+05 1.381750732E+03 1.196157227E+03 3.244225938E+05 1.785630981E+03 -1.245210419E+02
 1.248807386E-01 1.514034375E+05 1.380916016E+03 1.202739868E+03 3.245605625E+05 1.786274170E+03 -1.233723679E+02
 1.249135435E-01 1.510225938E+05 1.380027710E+03 1.207820923E+03 3.248543438E+05 1.786962158E+03 -1.220946884E+02
 1.249463558E-01 1.506332188E+05 1.379124146E+03 1.212474854E+03 3.251924688E+05 1.787662964E+03 -1.207803116E+02
 1.249791607E-01 1.502500469E+05 1.378234497E+03 1.217015869E+03 3.255347500E+05 1.788350952E+03 -1.194888992E+02
 1.250119805E-01 1.498609531E+05 1.377331543E+03 1.221664673E+03 3.258730625E+05 1.789051270E+03 -1.181755676E+02
 1.250447780E-01 1.494725781E+05 1.376430298E+03 1.226274292E+03 3.262144375E+05 1.789750122E+03 -1.168635330E+02
 1.250775903E-01 1.491254375E+05 1.375627686E+03 1.229066040E+03 3.266890625E+05 1.790370850E+03 -1.156477432E+02
 1.251104027E-01 1.487799062E+05 1.374828491E+03 1.231849121E+03 3.271639062E+05 1.790988770E+03 -1.144374466E+02
 1.251432151E-01 1.484477031E+05 1.374057495E+03 1.234560791E+03 3.276402500E+05 1.791583496E+03 -1.132723541E+02
 1.251760274E-01 1.481005625E+05 1.373254883E+03 1.237352539E+03 3.281149062E+05 1.792204224E+03 -1.120565643E+02
 1.252088249E-01 1.477662656E+05 1.372482056E+03 1.239710205E+03 3.286143750E+05 1.792800781E+03 -1.108736343E+02
 1.252416372E-01 1.474669062E+05 1.371790649E+03 1.240888306E+03 3.291813438E+05 1.793331665E+03 -1.097800217E+02
 1.252744496E-01 1.471719531E+05 1.371108154E+03 1.242040894E+03 3.297482500E+05 1.793855103E+03 -1.087014999E+02
 1.253072619E-01 1.468798594E+05 1.370431641E+03 1.243176880E+03 3.303151250E+05 1.794373535E+03 -1.076328659E+02
 1.253400743E-01 1.465805000E+05 1.369740234E+03 1.244354980E+03 3.308820938E+05 1.794904419E+03 -1.065392456E+02
 1.253728718E-01 1.462955312E+05 1.369083130E+03 1.244810913E+03 3.314814062E+05 1.795407349E+03 -1.054782944E+02
 1.254056841E-01 1.460241406E+05 1.368458618E+03 1.244584717E+03 3.321113438E+05 1.795883911E+03 -1.044481888E+02
 1.254384965E-01 1.457560781E+05 1.367840454E+03 1.244320679E+03 3.327405000E+05 1.796354736E+03 -1.034295654E+02
 1.254713088E-01 1.454864219E+05 1.367219360E+03 1.244074707E+03 3.333700000E+05 1.796828247E+03 -1.024054871E+02
 1.255041063E-01 1.452150312E+05 1.366594849E+03 1.243848511E+03 3.339999062E+05 1.797304810E+03 -1.013753891E+02
 1.255369186E-01 1.449513594E+05 1.365990723E+03 1.242625244E+03 3.346695625E+05 1.797763794E+03 -1.003538742E+02
 1.255697310E-01 1.446901250E+05 1.365393066E+03 1.241086304E+03 3.353517812E+05 1.798217285E+03 -9.933508301E+01
 1.256025434E-01 1.444301875E+05 1.364796753E+03 1.239509521E+03 3.360328750E+05 1.798668457E+03 -9.832010651E+01
 1.256353557E-01 1.441690469E+05 1.364199219E+03 1.237967896E+03 3.367150312E+05 1.799121704E+03 -9.730158234E+01
 1.256681532E-01 1.439078125E+05 1.363601562E+03 1.236423828E+03 3.373975312E+05 1.799575073E+03 -9.628273773E+01
 1.257009655E-01 1.436482656E+05 1.363008911E+03 1.233828369E+03 3.381378750E+05 1.800022095E+03 -9.525250244E+01
 1.257337779E-01 1.433887656E+05 1.362416260E+03 1.231230957E+03 3.388780625E+05 1.800468994E+03 -9.422228241E+01
 1.257665902E-01 1.431297188E+05 1.361823486E+03 1.228612671E+03 3.396165938E+05 1.800915161E+03 -9.319232178E+01
 1.257994026E-01 1.428701719E+05 1.361230835E+03 1.226017090E+03 3.403569375E+05 1.801362061E+03 -9.216208649E+01
 1.258322001E-01 1.426107656E+05 1.360638550E+03 1.223220947E+03 3.411105312E+05 1.801808472E+03 -9.112873077E+01
 1.258650124E-01 1.423517969E+05 1.360047119E+03 1.219823242E+03 3.419038438E+05 1.802252930E+03 -9.008602142E+01
 1.258978248E-01 1.420932031E+05 1.359456055E+03 1.216420410E+03 3.426964375E+05 1.802696655E+03 -8.904399872E+01
 1.259306371E-01 1.418349062E+05 1.358865234E+03 1.213013794E+03 3.434883750E+05 1.803139893E+03 -8.800254059E+01
 1.259634495E-01 1.415759375E+05 1.358273926E+03 1.209615967E+03 3.442817188E+05 1.803584351E+03 -8.695983124E+01
 1.259962469E-01 1.413183438E+05 1.357683838E+03 1.205911621E+03 3.451049375E+05 1.804027344E+03 -8.591487885E+01
 1.260290593E-01 1.410621562E+05 1.357095337E+03 1.201894897E+03 3.459586875E+05 1.804468994E+03 -8.486765289E+01
 1.260618716E-01 1.408071562E+05 1.356508545E+03 1.197874634E+03 3.468110000E+05 1.804908691E+03 -8.382369232E+01
 1.260946840E-01 1.405516562E+05 1.355921021E+03 1.193855957E+03 3.476639375E+05 1.805349243E+03 -8.277834320E+01
 1.261274964E-01 1.402954688E+05 1.355332520E+03 1.189839233E+03 3.485176562E+05 1.805790894E+03 -8.173111725E+01
 1.261602938E-01 1.400433594E+05 1.354746338E+03 1.185483887E+03 3.494246250E+05 1.806231567E+03 -8.068698883E+01
 1.261931062E-01 1.397926719E+05 1.354161011E+03 1.181010132E+03 3.503502188E+05 1.806671875E+03 -7.964395905E+01
 1.262259185E-01 1.395442812E+05 1.353579224E+03 1.176539062E+03 3.512734062E+05 1.807108521E+03 -7.860820770E+01
 1.262587309E-01 1.392938125E+05 1.352994263E+03 1.172065430E+03 3.521988125E+05 1.807548584E+03 -7.756587219E+01
 1.262915432E-01 1.390431094E+05 1.352408813E+03 1.167591553E+03 3.531244062E+05 1.807988892E+03 -7.652283478E+01
 1.263243407E-01 1.387999062E+05 1.351825928E+03 1.162846191E+03 3.541240625E+05 1.808429443E+03 -7.549050903E+01
 1.263571531E-01 1.385569688E+05 1.351243286E+03 1.158097290E+03 3.551246562E+05 1.808869629E+03 -7.445889282E+01
 1.263899654E-01 1.383166406E+05 1.350665283E+03 1.153355225E+03 3.561225938E+05 1.809305786E+03 -7.343623352E+01
 1.264227778E-01 1.380735312E+05 1.350082397E+03 1.148605835E+03 3.571233125E+05 1.809746338E+03 -7.240406036E+01
 1.264555901E-01 1.378325469E+05 1.349500122E+03 1.143811401E+03 3.581424375E+05 1.810186890E+03 -7.137548828E+01
 1.264883876E-01 1.375985469E+05 1.348920288E+03 1.138866699E+03 3.592227188E+05 1.810627197E+03 -7.035886383E+01
 1.265211999E-01 1.373656250E+05 1.348342285E+03 1.133923950E+03 3.603018125E+05 1.811065918E+03 -6.934613800E+01
 1.265540123E-01 1.371337656E+05 1.347766357E+03 1.128983276E+03 3.613796875E+05 1.811502930E+03 -6.833729553E+01
 1.265868247E-01 1.368997656E+05 1.347186401E+03 1.124038574E+03 3.624599688E+05 1.811943237E+03 -6.732067871E+01
 1.266196370E-01 1.366707188E+05 1.346609253E+03 1.118941528E+03 3.635748438E+05 1.812382446E+03 -6.631304932E+01
 1.266524345E-01 1.364471094E+05 1.346035034E+03 1.113676758E+03 3.647277500E+05 1.812820190E+03 -6.531531525E+01
 1.266852468E-01 1.362255625E+05 1.345464722E+03 1.108412720E+03 3.658777500E+05 1.813254517E+03 -6.432556152E+01
 1.267180592E-01 1.360032500E+05 1.344892944E+03 1.103148438E+03 3.670288438E+05 1.813690063E+03 -6.333287048E+01
 1.267508715E-01 1.357796406E+05 1.344318726E+03 1.097883789E+03 3.681817188E+05 1.814127808E+03 -6.233513641E+01
 1.267836839E-01 1.355643125E+05 1.343752808E+03 1.092180420E+03 3.693685312E+05 1.814559937E+03 -6.135270691E+01
 1.268164814E-01 1.353521875E+05 1.343190063E+03 1.086307861E+03 3.705684062E+05 1.814989868E+03 -6.037619019E+01
 1.268492937E-01 1.351431250E+05 1.342633423E+03 1.080429932E+03 3.717628750E+05 1.815414551E+03 -5.941225433E+01
 1.268821061E-01 1.349313750E+05 1.342071533E+03 1.074556641E+03 3.729621250E+05 1.815843872E+03 -5.843726730E+01
 1.269149184E-01 1.347192500E+05 1.341508667E+03 1.068684082E+03 3.741620000E+05 1.816273926E+03 -5.746075058E+01
 1.269477308E-01 1.345190625E+05 1.340968872E+03 1.061823242E+03 3.753692812E+05 1.816688477E+03 -5.650624084E+01
 1.269805282E-01 1.343193906E+05 1.340430176E+03 1.054928101E+03 3.765765938E+05 1.817102417E+03 -5.555297852E+01
 1.270133406E-01 1.341229219E+05 1.339898315E+03 1.048024170E+03 3.777771875E+05 1.817510620E+03 -5.461361313E+01
 1.270461529E-01 1.339231406E+05 1.339359375E+03 1.041129395E+03 3.789847188E+05 1.817924805E+03 -5.365985870E+01
 1.270789653E-01 1.337260938E+05 1.338830811E+03 1.033972290E+03 3.801915312E+05 1.818333252E+03 -5.271111298E+01
 1.271117777E-01 1.335391719E+05 1.338341553E+03 1.025840454E+03 3.813956250E+05 1.818720825E+03 -5.178097534E+01
 1.271445751E-01 1.333532969E+05 1.337854858E+03 1.017710510E+03 3.825978438E+05 1.819106323E+03 -5.085563278E+01
 1.271773875E-01 1.331686875E+05 1.337371216E+03 1.009582764E+03 3.837977500E+05 1.819489624E+03 -4.993607712E+01
 1.272101998E-01 1.329817656E+05 1.336881958E+03 1.001450928E+03 3.850018438E+05 1.819877197E+03 -4.900593567E+01
 1.272430122E-01 1.328007969E+05 1.336442017E+03 9.931791382E+02 3.862779375E+05 1.820240234E+03 -4.808639908E+01
 1.272758245E-01 1.326268906E+05 1.336060425E+03 9.847412109E+02 3.876394375E+05 1.820574341E+03 -4.717944717E+01
 1.273086220E-01 1.324549375E+05 1.335684570E+03 9.763336792E+02 3.890015938E+05 1.820904297E+03 -4.628183365E+01
 1.273414344E-01 1.322823750E+05 1.335307007E+03 9.679168091E+02 3.903635312E+05 1.821235474E+03 -4.538134766E+01
 1.273742467E-01 1.321084844E+05 1.334925537E+03 9.594788818E+02 3.917250312E+05 1.821569458E+03 -4.447439575E+01
 1.274070591E-01 1.319435781E+05 1.334707153E+03 9.528862915E+02 3.936849375E+05 1.821800903E+03 -4.358148956E+01
 1.274398714E-01 1.317825000E+05 1.334557983E+03 9.470750732E+02 3.958982188E+05 1.821988892E+03 -4.269453812E+01
 1.274726689E-01 1.316241875E+05 1.334419556E+03 9.413720703E+02 3.981310000E+05 1.822168579E+03 -4.182174301E+01
 1.275054812E-01 1.314635312E+05 1.334271973E+03 9.355770264E+02 4.003471875E+05 1.822355347E+03 -4.093690491E+01
 1.275382936E-01 1.313024375E+05 1.334122803E+03 9.297658081E+02 4.025604688E+05 1.822543335E+03 -4.004995346E+01
 1.275711060E-01 1.311525156E+05 1.334413574E+03 9.319117432E+02 4.076880938E+05 1.822344604E+03 -3.917464447E+01
 1.276039183E-01 1.310032266E+05 1.334728638E+03 9.344990845E+02 4.129771875E+05 1.822124390E+03 -3.830017090E+01
 1.276367158E-01 1.308569688E+05 1.335059814E+03 9.373527832E+02 4.183464375E+05 1.821888550E+03 -3.744213104E+01
 1.276695281E-01 1.307076562E+05 1.335374756E+03 9.399370117E+02 4.236345938E+05 1.821668457E+03 -3.656746674E+01
 1.277023405E-01 1.305597812E+05 1.335846924E+03 9.481730347E+02 4.307515625E+05 1.821254761E+03 -3.569268036E+01
 1.277351528E-01 1.304179297E+05 1.336976318E+03 9.800344238E+02 4.455132500E+05 1.820031860E+03 -3.481740952E+01
 1.277679652E-01 1.302769375E+05 1.338111694E+03 1.012147644E+03 4.603392188E+05 1.818800415E+03 -3.394719696E+01
 1.278007627E-01 1.301371797E+05 1.339255737E+03 1.044624756E+03 4.752580625E+05 1.817557007E+03 -3.308429337E+01
 1.278335750E-01 1.299953359E+05 1.340385132E+03 1.076486206E+03 4.900197500E+05 1.816333984E+03 -3.220901871E+01
 1.278663874E-01 1.298518438E+05 1.342018677E+03 1.149808105E+03 5.137777500E+05 1.814210815E+03 -3.132547569E+01
 1.278991997E-01 1.297062500E+05 1.344298218E+03 1.276264526E+03 5.490650625E+05 1.810934082E+03 -3.043133354E+01
 1.279320121E-01 1.295621719E+05 1.346589722E+03 1.404044556E+03 5.845376875E+05 1.807630005E+03 -2.954748344E+01
 1.279648095E-01 1.294177266E+05 1.348878418E+03 1.531501343E+03 6.199650625E+05 1.804332642E+03 -2.866111946E+01
 1.279976219E-01 1.292721328E+05 1.351157959E+03 1.657957642E+03 6.552523750E+05 1.801055786E+03 -2.776697731E+01
 1.280304343E-01 1.291125938E+05 1.354178345E+03 1.923208740E+03 7.053666875E+05 1.795491211E+03 -2.684907532E+01
 1.280632466E-01 1.289466172E+05 1.357540894E+03 2.252580566E+03 7.623307500E+05 1.788869629E+03 -2.592019653E+01