TITLE     = "flagged cvs"
VARIABLES = "Y"
"press"
"temp"
"kine"
"omega"
"vel-X"
"vel-Y"
ZONE T="Extracted Points"
 STRANDID=0, SOLUTIONTIME=0
 I=299, J=1, K=1, ZONETYPE=Ordered
 DATAPACKING=POINT
 DT=(SINGLE SINGLE SINGLE SINGLE SINGLE SINGLE SINGLE )
 1.195328087E-01 1.230656016E+05 7.801240234E+02 2.286233215E+02 6.268368000E+07 3.759514465E+02 1.740443520E-03
 1.195656210E-01 1.227013047E+05 1.268660400E+03 1.997713501E+03 3.211171400E+07 9.166571045E+02 3.644274920E-02
 1.195984259E-01 1.221722969E+05 1.442928223E+03 5.055167969E+03 1.568544400E+07 1.189560547E+03 1.485262662E-01
 1.196312383E-01 1.219782969E+05 1.514347046E+03 6.358143066E+03 9.288778000E+06 1.326963501E+03 3.597440422E-01
 1.196640432E-01 1.220535781E+05 1.555306274E+03 6.087823730E+03 6.701824000E+06 1.416015503E+03 5.865795612E-01
 1.196968555E-01 1.222152266E+05 1.583646240E+03 5.274224609E+03 5.276544500E+06 1.484045288E+03 8.461298347E-01
 1.197296679E-01 1.224055312E+05 1.604774292E+03 4.240637695E+03 4.297257500E+06 1.539589355E+03 1.121674418E+00
 1.197624728E-01 1.225936094E+05 1.620698120E+03 3.177630859E+03 3.531832250E+06 1.585595703E+03 1.391217470E+00
 1.197952852E-01 1.227588906E+05 1.631786499E+03 2.225667236E+03 2.912749500E+06 1.622318604E+03 1.639675379E+00
 1.198280901E-01 1.228928359E+05 1.638632812E+03 1.440473389E+03 2.370457250E+06 1.651469849E+03 1.862888455E+00
 1.198609024E-01 1.229909688E+05 1.641219482E+03 8.548194580E+02 1.864139875E+06 1.674263672E+03 2.054364681E+00
 1.198937148E-01 1.230561328E+05 1.639541748E+03 4.699857178E+02 1.443395000E+06 1.691592285E+03 2.216787815E+00
 1.199265197E-01 1.230972812E+05 1.634467407E+03 2.325016632E+02 1.138194000E+06 1.705045044E+03 2.359373331E+00
 1.199593320E-01 1.231198984E+05 1.626602783E+03 1.091643143E+02 9.490904375E+05 1.715548218E+03 2.488066673E+00
 1.199921370E-01 1.231257109E+05 1.616143555E+03 7.740680695E+01 8.994456875E+05 1.723840698E+03 2.603468895E+00
 1.200249493E-01 1.231287031E+05 1.605316284E+03 5.849759293E+01 8.697088125E+05 1.731888062E+03 2.716103792E+00
 1.200577617E-01 1.231271875E+05 1.593958862E+03 5.773457718E+01 8.683975625E+05 1.739689941E+03 2.824861050E+00
 1.200905666E-01 1.231249766E+05 1.582716797E+03 5.811494827E+01 8.664666250E+05 1.747484497E+03 2.933267832E+00
 1.201233789E-01 1.231217812E+05 1.571671509E+03 6.027985001E+01 8.632893125E+05 1.755266846E+03 3.042605162E+00
 1.201561838E-01 1.231183125E+05 1.560887939E+03 6.242401505E+01 8.582608125E+05 1.762920044E+03 3.151885271E+00
 1.201889962E-01 1.231143125E+05 1.550840088E+03 6.447843933E+01 8.480572500E+05 1.770206909E+03 3.263073206E+00
 1.202218086E-01 1.231102891E+05 1.540791992E+03 6.653501892E+01 8.378500625E+05 1.777494019E+03 3.374025106E+00
 1.202546135E-01 1.231055547E+05 1.532037598E+03 6.872156525E+01 8.244770000E+05 1.783897949E+03 3.484528065E+00
 1.202874258E-01 1.231008516E+05 1.523434448E+03 7.091263580E+01 8.107371250E+05 1.790198364E+03 3.595754623E+00
 1.203202307E-01 1.230958281E+05 1.515200439E+03 7.333662415E+01 7.969466250E+05 1.796206055E+03 3.705626726E+00
 1.203530431E-01 1.230901406E+05 1.508148926E+03 7.647435760E+01 7.830106875E+05 1.801274780E+03 3.813598156E+00
 1.203858554E-01 1.230845938E+05 1.501096313E+03 7.959860229E+01 7.690840000E+05 1.806344360E+03 3.922358751E+00
 1.204186603E-01 1.230784531E+05 1.494326416E+03 8.323632050E+01 7.550857500E+05 1.811163574E+03 4.031087875E+00
 1.204514727E-01 1.230710391E+05 1.488374756E+03 8.832551575E+01 7.409075000E+05 1.815258057E+03 4.142118931E+00
 1.204842776E-01 1.230638281E+05 1.482421753E+03 9.339582825E+01 7.267595625E+05 1.819353638E+03 4.254189014E+00
 1.205170900E-01 1.230564141E+05 1.476470093E+03 9.848502350E+01 7.125813750E+05 1.823448120E+03 4.365220547E+00
 1.205499023E-01 1.230488438E+05 1.472355835E+03 1.043593063E+02 7.002851875E+05 1.826177734E+03 4.457241535E+00
 1.205827072E-01 1.230412578E+05 1.468420654E+03 1.103100815E+02 6.881724375E+05 1.828774414E+03 4.547410011E+00
 1.206155196E-01 1.230339531E+05 1.464484375E+03 1.162384338E+02 6.761190000E+05 1.831371948E+03 4.638826847E+00
 1.206483245E-01 1.230263672E+05 1.460549072E+03 1.221892014E+02 6.640061875E+05 1.833968628E+03 4.728995323E+00
 1.206811368E-01 1.230184922E+05 1.456702271E+03 1.284077759E+02 6.517146875E+05 1.836495239E+03 4.819435120E+00
 1.207139492E-01 1.230090547E+05 1.453332031E+03 1.360700073E+02 6.384596250E+05 1.838644043E+03 4.911335468E+00
 1.207467541E-01 1.229996953E+05 1.449961670E+03 1.437272186E+02 6.252228125E+05 1.840792969E+03 5.003555298E+00
 1.207795665E-01 1.229905000E+05 1.446591309E+03 1.513743134E+02 6.120231250E+05 1.842941895E+03 5.096421719E+00
 1.208123714E-01 1.229810625E+05 1.443220947E+03 1.590365448E+02 5.987680000E+05 1.845090820E+03 5.188322067E+00
 1.208451837E-01 1.229711641E+05 1.440058838E+03 1.668079224E+02 5.859006250E+05 1.847091309E+03 5.278105736E+00
 1.208779961E-01 1.229605781E+05 1.437206421E+03 1.747418365E+02 5.736106250E+05 1.848871094E+03 5.364737511E+00
 1.209108010E-01 1.229501875E+05 1.434354370E+03 1.826687775E+02 5.613543125E+05 1.850650513E+03 5.451987743E+00
 1.209436134E-01 1.229397734E+05 1.431502319E+03 1.905964508E+02 5.490944375E+05 1.852430054E+03 5.539173126E+00
 1.209764183E-01 1.229291875E+05 1.428650024E+03 1.985303802E+02 5.368044375E+05 1.854209717E+03 5.625804424E+00
 1.210092306E-01 1.229180234E+05 1.426046875E+03 2.060665588E+02 5.260098750E+05 1.855853882E+03 5.709227562E+00
 1.210420430E-01 1.229065312E+05 1.423579712E+03 2.133859253E+02 5.160304688E+05 1.857424072E+03 5.790901661E+00
 1.210748479E-01 1.228953828E+05 1.421113403E+03 2.206988831E+02 5.060871562E+05 1.858993774E+03 5.873393536E+00
 1.211076602E-01 1.228839766E+05 1.418646484E+03 2.280167084E+02 4.961164062E+05 1.860563843E+03 5.955263138E+00
 1.211404651E-01 1.228724844E+05 1.416179321E+03 2.353360901E+02 4.861370312E+05 1.862134155E+03 6.036936760E+00
 1.211732775E-01 1.228603594E+05 1.414075684E+03 2.418270569E+02 4.784159375E+05 1.863542725E+03 6.113872528E+00
 1.212060899E-01 1.228481484E+05 1.412015869E+03 2.482181854E+02 4.709670000E+05 1.864931763E+03 6.190237522E+00
 1.212388948E-01 1.228364062E+05 1.409956909E+03 2.546034546E+02 4.635459062E+05 1.866319946E+03 6.267430782E+00
 1.212717071E-01 1.228241953E+05 1.407897095E+03 2.609945984E+02 4.560969688E+05 1.867708984E+03 6.343795300E+00
 1.213045120E-01 1.228119062E+05 1.405892944E+03 2.672674255E+02 4.489222500E+05 1.869067749E+03 6.419288635E+00
 1.213373244E-01 1.227990938E+05 1.404237427E+03 2.727994385E+02 4.434648125E+05 1.870237305E+03 6.489324093E+00
 1.213701367E-01 1.227864062E+05 1.402582031E+03 2.783302002E+02 4.380113125E+05 1.871406494E+03 6.559518337E+00
 1.214029416E-01 1.227739844E+05 1.400927124E+03 2.838579712E+02 4.325673125E+05 1.872575439E+03 6.630092621E+00
 1.214357540E-01 1.227611797E+05 1.399271606E+03 2.893899536E+02 4.271098750E+05 1.873744995E+03 6.700128078E+00
 1.214685589E-01 1.227481484E+05 1.397750488E+03 2.947002563E+02 4.221594375E+05 1.874820435E+03 6.767431259E+00
 1.215013713E-01 1.227347656E+05 1.396445923E+03 2.996532898E+02 4.180259375E+05 1.875744507E+03 6.830332279E+00
 1.215341836E-01 1.227216328E+05 1.395141724E+03 3.046036377E+02 4.138986250E+05 1.876668335E+03 6.893617153E+00
 1.215669885E-01 1.227084922E+05 1.393837524E+03 3.095540466E+02 4.097711875E+05 1.877592163E+03 6.956892490E+00
 1.215998009E-01 1.226951094E+05 1.392532959E+03 3.145071106E+02 4.056376875E+05 1.878516235E+03 7.019793510E+00
 1.216326058E-01 1.226812500E+05 1.391411865E+03 3.193298645E+02 4.020189062E+05 1.879299805E+03 7.078361034E+00
 1.216654181E-01 1.226671094E+05 1.390399536E+03 3.240755005E+02 3.987047812E+05 1.880000244E+03 7.134364128E+00
 1.216982305E-01 1.226532734E+05 1.389387451E+03 3.288173218E+02 3.953987500E+05 1.880700439E+03 7.191247463E+00
 1.217310354E-01 1.226392188E+05 1.388375122E+03 3.335619507E+02 3.920868438E+05 1.881400879E+03 7.247491360E+00
 1.217638478E-01 1.226250781E+05 1.387362671E+03 3.383075867E+02 3.887727188E+05 1.882101318E+03 7.303494453E+00
 1.217966527E-01 1.226099844E+05 1.386549805E+03 3.430835266E+02 3.859085000E+05 1.882646362E+03 7.354647636E+00
 1.218294650E-01 1.225947500E+05 1.385765869E+03 3.478638306E+02 3.831095000E+05 1.883169067E+03 7.405097961E+00
 1.218622774E-01 1.225797578E+05 1.384981934E+03 3.526393433E+02 3.803197188E+05 1.883691650E+03 7.457193375E+00
 1.218950823E-01 1.225645156E+05 1.384197998E+03 3.574196472E+02 3.775207188E+05 1.884214355E+03 7.507644176E+00
 1.219278947E-01 1.225491250E+05 1.383434082E+03 3.622077026E+02 3.747644062E+05 1.884721558E+03 7.557584763E+00
 1.219606996E-01 1.225325547E+05 1.382819336E+03 3.670534058E+02 3.723252188E+05 1.885114746E+03 7.603744030E+00
 1.219935119E-01 1.225160312E+05 1.382204590E+03 3.718981018E+02 3.698876562E+05 1.885507935E+03 7.650254250E+00
 1.220263243E-01 1.224996328E+05 1.381589966E+03 3.767398071E+02 3.674547812E+05 1.885901001E+03 7.697766304E+00
 1.220591292E-01 1.224830703E+05 1.380975220E+03 3.815855103E+02 3.650155938E+05 1.886294189E+03 7.743925571E+00
 1.220919415E-01 1.224661797E+05 1.380407349E+03 3.864479065E+02 3.626804688E+05 1.886655884E+03 7.787968636E+00
 1.221247464E-01 1.224487344E+05 1.379921143E+03 3.913394165E+02 3.605272500E+05 1.886962769E+03 7.828313351E+00
 1.221575588E-01 1.224315547E+05 1.379435669E+03 3.962285461E+02 3.583773125E+05 1.887269287E+03 7.868782520E+00
 1.221903712E-01 1.224143984E+05 1.378950073E+03 4.011174927E+02 3.562275938E+05 1.887575806E+03 7.909259796E+00
 1.222231761E-01 1.223969531E+05 1.378463989E+03 4.060090332E+02 3.540743438E+05 1.887882690E+03 7.949604511E+00
 1.222559884E-01 1.223800078E+05 1.378037720E+03 4.109218445E+02 3.520739062E+05 1.888153931E+03 7.982135296E+00
 1.222887933E-01 1.223633984E+05 1.377649780E+03 4.158483582E+02 3.501714688E+05 1.888402344E+03 8.009654999E+00
 1.223216057E-01 1.223478594E+05 1.377264526E+03 4.207713318E+02 3.482735625E+05 1.888649048E+03 8.034707069E+00
 1.223544180E-01 1.223315781E+05 1.376877441E+03 4.256967468E+02 3.463725000E+05 1.888896973E+03 8.061463356E+00
 1.223872229E-01 1.223149609E+05 1.376489502E+03 4.306232300E+02 3.444700625E+05 1.889145386E+03 8.088982582E+00
 1.224200353E-01 1.223012188E+05 1.376164917E+03 4.355554504E+02 3.427741250E+05 1.889355225E+03 8.096271515E+00
 1.224528402E-01 1.222879688E+05 1.375851074E+03 4.404886475E+02 3.411133438E+05 1.889558472E+03 8.100113869E+00
 1.224856526E-01 1.222770703E+05 1.375543335E+03 4.454192505E+02 3.394580312E+05 1.889757690E+03 8.097112656E+00
 1.225184649E-01 1.222638125E+05 1.375229492E+03 4.503524475E+02 3.377972500E+05 1.889960938E+03 8.100955963E+00
 1.225512698E-01 1.222509375E+05 1.374921265E+03 4.552853088E+02 3.361597500E+05 1.890160522E+03 8.102166176E+00
 1.225840822E-01 1.222414609E+05 1.374663818E+03 4.602149963E+02 3.347324062E+05 1.890328003E+03 8.079608917E+00
 1.226168871E-01 1.222323203E+05 1.374407349E+03 4.651441650E+02 3.333058438E+05 1.890494873E+03 8.056264877E+00
 1.226496994E-01 1.222243594E+05 1.374153809E+03 4.700714722E+02 3.318819688E+05 1.890659790E+03 8.030220032E+00
 1.226825118E-01 1.222148828E+05 1.373896362E+03 4.750011597E+02 3.304546250E+05 1.890827271E+03 8.007662773E+00
 1.227153167E-01 1.222040703E+05 1.373647949E+03 4.799343262E+02 3.290982812E+05 1.890988525E+03 7.986224174E+00
 1.227481291E-01 1.221907500E+05 1.373416626E+03 4.848740540E+02 3.278767500E+05 1.891138306E+03 7.966908932E+00
 1.227809340E-01 1.221763125E+05 1.373182129E+03 4.898108215E+02 3.266564375E+05 1.891290161E+03 7.954165936E+00
 1.228137463E-01 1.221616953E+05 1.372947144E+03 4.947471313E+02 3.254363438E+05 1.891442261E+03 7.942469120E+00
 1.228465587E-01 1.221483672E+05 1.372715820E+03 4.996868286E+02 3.242148125E+05 1.891592041E+03 7.923153877E+00
 1.228793636E-01 1.221201250E+05 1.372461914E+03 5.046465454E+02 3.230941875E+05 1.891755005E+03 7.956515312E+00
 1.229121760E-01 1.220815312E+05 1.372192261E+03 5.096201172E+02 3.220435938E+05 1.891927002E+03 8.026447296E+00
 1.229449809E-01 1.220342266E+05 1.371898804E+03 5.145880127E+02 3.209947812E+05 1.892114136E+03 8.136374474E+00
 1.229777932E-01 1.219926016E+05 1.371620850E+03 5.195596313E+02 3.199447812E+05 1.892291504E+03 8.220205307E+00
 1.230106056E-01 1.219540000E+05 1.371351318E+03 5.245332031E+02 3.188942188E+05 1.892463501E+03 8.290137291E+00
 1.230434105E-01 1.218673203E+05 1.370972534E+03 5.295744019E+02 3.179630000E+05 1.892703125E+03 8.544142723E+00
 1.230762228E-01 1.217711719E+05 1.370572266E+03 5.346289673E+02 3.170553125E+05 1.892955933E+03 8.834395409E+00
 1.231090277E-01 1.216524375E+05 1.370110596E+03 5.396741943E+02 3.161501875E+05 1.893247437E+03 9.225025177E+00
 1.231418401E-01 1.215562891E+05 1.369710327E+03 5.447287598E+02 3.152425000E+05 1.893500244E+03 9.515277863E+00
 1.231746525E-01 1.214539375E+05 1.369294922E+03 5.497932129E+02 3.143444688E+05 1.893762573E+03 9.829678535E+00
 1.232074574E-01 1.212809688E+05 1.368707275E+03 5.549705811E+02 3.135568750E+05 1.894131958E+03 1.041903591E+01
 1.232402697E-01 1.211043281E+05 1.368109741E+03 5.601459961E+02 3.127697500E+05 1.894507446E+03 1.102499008E+01
 1.232730746E-01 1.209124531E+05 1.367471313E+03 5.653129272E+02 3.119845000E+05 1.894908325E+03 1.169983959E+01
 1.233058870E-01 1.207394844E+05 1.366883667E+03 5.704903564E+02 3.111969062E+05 1.895277710E+03 1.228919697E+01
 1.233386993E-01 1.205559844E+05 1.366273560E+03 5.757188110E+02 3.104435625E+05 1.895660522E+03 1.291448402E+01
 1.233715042E-01 1.203507109E+05 1.365617188E+03 5.810529175E+02 3.097610000E+05 1.896071167E+03 1.361406136E+01
 1.234043166E-01 1.201493438E+05 1.364972290E+03 5.863865967E+02 3.090808750E+05 1.896473877E+03 1.430025864E+01
 1.234371215E-01 1.199490078E+05 1.364330566E+03 5.917202148E+02 3.084013438E+05 1.896874634E+03 1.498291206E+01
 1.234699339E-01 1.197437422E+05 1.363674194E+03 5.970542603E+02 3.077188125E+05 1.897285156E+03 1.568248940E+01
 1.235027388E-01 1.196152656E+05 1.363243652E+03 6.026848145E+02 3.071264062E+05 1.897557617E+03 1.604256821E+01
 1.235355511E-01 1.195444375E+05 1.362982666E+03 6.085377808E+02 3.066016875E+05 1.897726074E+03 1.614782143E+01
 1.235683635E-01 1.195367031E+05 1.362902344E+03 6.145620728E+02 3.061131562E+05 1.897785767E+03 1.599338245E+01
 1.236011684E-01 1.194903516E+05 1.362711426E+03 6.204815063E+02 3.056024375E+05 1.897912109E+03 1.599790478E+01
 1.236339808E-01 1.194195234E+05 1.362450562E+03 6.263345337E+02 3.050777188E+05 1.898080688E+03 1.610315895E+01
 1.236667857E-01 1.197031172E+05 1.363189575E+03 6.340312500E+02 3.049240938E+05 1.897638916E+03 1.472232628E+01
 1.236995980E-01 1.200663828E+05 1.364153320E+03 6.421423950E+02 3.048538438E+05 1.897060059E+03 1.300748730E+01
 1.237324104E-01 1.206314531E+05 1.365675293E+03 6.513588257E+02 3.049871875E+05 1.896135864E+03 1.047547722E+01
 1.237652153E-01 1.209948203E+05 1.366639404E+03 6.594705200E+02 3.049170625E+05 1.895556763E+03 8.760223389E+00
 1.237980276E-01 1.214049531E+05 1.367726929E+03 6.679407349E+02 3.049108125E+05 1.894896118E+03 6.859349251E+00
 1.238308325E-01 1.225273828E+05 1.370695190E+03 6.818685913E+02 3.058769688E+05 1.892993164E+03 2.131349802E+00
 1.238636449E-01 1.236907031E+05 1.373766357E+03 6.961249390E+02 3.069018750E+05 1.891018433E+03 -2.751688480E+00
 1.238964573E-01 1.250623281E+05 1.377361816E+03 7.120549927E+02 3.082260625E+05 1.888678101E+03 -8.424471855E+00
 1.239292622E-01 1.261847578E+05 1.380329956E+03 7.259827881E+02 3.091922188E+05 1.886775146E+03 -1.315247059E+01
 1.239620745E-01 1.275544609E+05 1.383881226E+03 7.423465576E+02 3.105432188E+05 1.884439575E+03 -1.876647568E+01
 1.239948794E-01 1.294823828E+05 1.388748169E+03 7.642092896E+02 3.127630312E+05 1.881127319E+03 -2.638055420E+01
 1.240276918E-01 1.315017188E+05 1.393807861E+03 7.869939575E+02 3.151159688E+05 1.877660156E+03 -3.428442383E+01
 1.240605041E-01 1.335559062E+05 1.398940796E+03 8.101301270E+02 3.175196875E+05 1.874133667E+03 -4.229878998E+01
 1.240933090E-01 1.354838281E+05 1.403807861E+03 8.319928589E+02 3.197395000E+05 1.870821533E+03 -4.991286850E+01
 1.241261214E-01 1.375668750E+05 1.408903320E+03 8.562564697E+02 3.221532188E+05 1.867270264E+03 -5.785665512E+01
 1.241589263E-01 1.397757188E+05 1.414184082E+03 8.824665527E+02 3.247241875E+05 1.863525146E+03 -6.606776428E+01
 1.241917387E-01 1.419494062E+05 1.419305176E+03 9.085316772E+02 3.271830625E+05 1.859862793E+03 -7.403622437E+01
 1.242245510E-01 1.441430938E+05 1.424517090E+03 9.346793213E+02 3.297057500E+05 1.856153320E+03 -8.214279938E+01
 1.242573559E-01 1.463519219E+05 1.429797852E+03 9.608894043E+02 3.322766875E+05 1.852408081E+03 -9.035391235E+01
 1.242901683E-01 1.481517500E+05 1.433890991E+03 9.846113281E+02 3.341614688E+05 1.849410034E+03 -9.682320404E+01
 1.243229732E-01 1.498477188E+05 1.437682617E+03 1.007701477E+03 3.358719688E+05 1.846601562E+03 -1.028502121E+02
 1.243557855E-01 1.512693750E+05 1.440760742E+03 1.028520996E+03 3.371647812E+05 1.844271240E+03 -1.078578568E+02
 1.243885979E-01 1.529591406E+05 1.444536255E+03 1.051559814E+03 3.388658438E+05 1.841473633E+03 -1.138618164E+02
 1.244214028E-01 1.546167656E+05 1.448234009E+03 1.074361328E+03 3.405308125E+05 1.838730225E+03 -1.197535858E+02
 1.244542152E-01 1.554155781E+05 1.449831055E+03 1.090701538E+03 3.411757500E+05 1.837442871E+03 -1.226171646E+02
 1.244870201E-01 1.561790156E+05 1.451346436E+03 1.106796753E+03 3.417847812E+05 1.836214844E+03 -1.253637466E+02
 1.245198324E-01 1.567168906E+05 1.452342163E+03 1.121328613E+03 3.421650000E+05 1.835364258E+03 -1.273640976E+02
 1.245526448E-01 1.575157031E+05 1.453939087E+03 1.137668823E+03 3.428099062E+05 1.834076904E+03 -1.302276764E+02
 1.245854497E-01 1.581018281E+05 1.455065063E+03 1.152716064E+03 3.433154688E+05 1.833145752E+03 -1.323845367E+02
 1.246182621E-01 1.581621406E+05 1.455026978E+03 1.164566650E+03 3.434765000E+05 1.833094849E+03 -1.327942505E+02
 1.246510670E-01 1.581481875E+05 1.454832764E+03 1.176076416E+03 3.435953438E+05 1.833168457E+03 -1.329666290E+02
 1.246838793E-01 1.580963125E+05 1.454558960E+03 1.187412231E+03 3.436926562E+05 1.833305542E+03 -1.330178680E+02
 1.247166917E-01 1.581566250E+05 1.454520874E+03 1.199262817E+03 3.438536875E+05 1.833254761E+03 -1.334275665E+02
 1.247494966E-01 1.580096250E+05 1.454051758E+03 1.209997925E+03 3.440140938E+05 1.833552612E+03 -1.331457367E+02
 1.247823089E-01 1.576811719E+05 1.453205322E+03 1.219756714E+03 3.441739688E+05 1.834155640E+03 -1.322586212E+02
 1.248151138E-01 1.573028594E+05 1.452257568E+03 1.229349731E+03 3.443255000E+05 1.834839844E+03 -1.312154236E+02
 1.248479262E-01 1.569506562E+05 1.451362793E+03 1.239029541E+03 3.444814062E+05 1.835481567E+03 -1.302539520E+02
 1.248807386E-01 1.566222031E+05 1.450516479E+03 1.248788330E+03 3.446412812E+05 1.836084595E+03 -1.293668365E+02
 1.249135435E-01 1.562090938E+05 1.449500122E+03 1.257335815E+03 3.449311562E+05 1.836829224E+03 -1.281700134E+02
 1.249463558E-01 1.557718906E+05 1.448435303E+03 1.265538818E+03 3.452580312E+05 1.837614014E+03 -1.268850784E+02
 1.249791607E-01 1.553296875E+05 1.447361328E+03 1.273613037E+03 3.455896875E+05 1.838404419E+03 -1.255880203E+02
 1.250119805E-01 1.548922656E+05 1.446296143E+03 1.281810181E+03 3.459167812E+05 1.839189575E+03 -1.243025284E+02
 1.250447780E-01 1.544557500E+05 1.445232910E+03 1.289970703E+03 3.462480000E+05 1.839973267E+03 -1.230186996E+02
 1.250775903E-01 1.540469062E+05 1.444233521E+03 1.296388916E+03 3.467587188E+05 1.840710327E+03 -1.217807465E+02
 1.251104027E-01 1.536397500E+05 1.443237671E+03 1.302794067E+03 3.472697188E+05 1.841444336E+03 -1.205484924E+02
 1.251432151E-01 1.532464375E+05 1.442271606E+03 1.309091187E+03 3.477832188E+05 1.842154297E+03 -1.193631897E+02
 1.251760274E-01 1.528376094E+05 1.441272217E+03 1.315509399E+03 3.482939375E+05 1.842891357E+03 -1.181252365E+02
 1.252088249E-01 1.524438906E+05 1.440306396E+03 1.321337891E+03 3.488364688E+05 1.843602905E+03 -1.169264221E+02
 1.252416372E-01 1.520912969E+05 1.439432007E+03 1.325563599E+03 3.494655625E+05 1.844245483E+03 -1.158340073E+02
 1.252744496E-01 1.517444688E+05 1.438569824E+03 1.329749268E+03 3.500946562E+05 1.844878296E+03 -1.147609711E+02
 1.253072619E-01 1.514014219E+05 1.437715454E+03 1.333908569E+03 3.507237500E+05 1.845504761E+03 -1.137006149E+02
 1.253400743E-01 1.510488281E+05 1.436841187E+03 1.338134277E+03 3.513528438E+05 1.846147217E+03 -1.126081924E+02
 1.253728718E-01 1.507160625E+05 1.436009399E+03 1.341412720E+03 3.520194375E+05 1.846758057E+03 -1.115645752E+02
 1.254056841E-01 1.504020312E+05 1.435218018E+03 1.343796143E+03 3.527215000E+05 1.847338989E+03 -1.105670547E+02
 1.254384965E-01 1.500929688E+05 1.434436401E+03 1.346135864E+03 3.534230312E+05 1.847911743E+03 -1.095863876E+02
 1.254713088E-01 1.497815312E+05 1.433650146E+03 1.348496460E+03 3.541248125E+05 1.848488281E+03 -1.085977173E+02
 1.255041063E-01 1.494675000E+05 1.432858765E+03 1.350879883E+03 3.548268750E+05 1.849069214E+03 -1.076001968E+02
 1.255369186E-01 1.491661094E+05 1.432091675E+03 1.352305298E+03 3.555795938E+05 1.849632568E+03 -1.066223907E+02
 1.255697310E-01 1.488687188E+05 1.431332275E+03 1.353427246E+03 3.563483438E+05 1.850190308E+03 -1.056508255E+02
 1.256025434E-01 1.485732812E+05 1.430575684E+03 1.354499268E+03 3.571158750E+05 1.850744751E+03 -1.046862946E+02
 1.256353557E-01 1.482760156E+05 1.429816528E+03 1.355617798E+03 3.578845312E+05 1.851302246E+03 -1.037152176E+02
 1.256681532E-01 1.479786406E+05 1.429057129E+03 1.356734253E+03 3.586536250E+05 1.851859985E+03 -1.027435913E+02
 1.257009655E-01 1.476855625E+05 1.428303589E+03 1.356709961E+03 3.594898125E+05 1.852413086E+03 -1.017593384E+02
 1.257337779E-01 1.473925000E+05 1.427549927E+03 1.356681885E+03 3.603259375E+05 1.852966064E+03 -1.007751465E+02
 1.257665902E-01 1.470995625E+05 1.426795166E+03 1.356612183E+03 3.611609375E+05 1.853518799E+03 -9.979163361E+01
 1.257994026E-01 1.468064844E+05 1.426041504E+03 1.356587891E+03 3.619971562E+05 1.854071777E+03 -9.880737305E+01
 1.258322001E-01 1.465136875E+05 1.425287354E+03 1.356266968E+03 3.628525312E+05 1.854625122E+03 -9.781780243E+01
 1.258650124E-01 1.462217812E+05 1.424531250E+03 1.355055908E+03 3.637653750E+05 1.855179199E+03 -9.681227875E+01
 1.258978248E-01 1.459300000E+05 1.423775024E+03 1.353829590E+03 3.646774062E+05 1.855732910E+03 -9.580719757E+01
 1.259306371E-01 1.456383125E+05 1.423018433E+03 1.352590576E+03 3.655887500E+05 1.856286499E+03 -9.480247498E+01
 1.259634495E-01 1.453464062E+05 1.422262329E+03 1.351379639E+03 3.665016250E+05 1.856840454E+03 -9.379695129E+01
 1.259962469E-01 1.450558906E+05 1.421508057E+03 1.349566040E+03 3.674450000E+05 1.857392944E+03 -9.278371429E+01
 1.260290593E-01 1.447668125E+05 1.420755615E+03 1.347138184E+03 3.684195000E+05 1.857943848E+03 -9.176261139E+01
 1.260618716E-01 1.444784844E+05 1.420004028E+03 1.344685547E+03 3.693917812E+05 1.858493286E+03 -9.074427795E+01
 1.260946840E-01 1.441898281E+05 1.419252075E+03 1.342243408E+03 3.703649688E+05 1.859043335E+03 -8.972477722E+01
 1.261274964E-01 1.439007656E+05 1.418499634E+03 1.339815552E+03 3.713394688E+05 1.859594238E+03 -8.870366669E+01
 1.261602938E-01 1.436160469E+05 1.417759521E+03 1.336424194E+03 3.723461250E+05 1.860134644E+03 -8.767688751E+01
 1.261931062E-01 1.433328750E+05 1.417023804E+03 1.332695190E+03 3.733640312E+05 1.860671509E+03 -8.664811707E+01
 1.262259185E-01 1.430513594E+05 1.416291138E+03 1.328932495E+03 3.743782812E+05 1.861204956E+03 -8.562642670E+01
 1.262587309E-01 1.427683438E+05 1.415555786E+03 1.325200317E+03 3.753958125E+05 1.861741455E+03 -8.459832764E+01
 1.262915432E-01 1.424851719E+05 1.414820068E+03 1.321471313E+03 3.764137500E+05 1.862278198E+03 -8.356955719E+01
 1.263243407E-01 1.422105781E+05 1.414114258E+03 1.316293701E+03 3.774691562E+05 1.862789795E+03 -8.253896332E+01
 1.263571531E-01 1.419362188E+05 1.413409058E+03 1.311093384E+03 3.785248750E+05 1.863300659E+03 -8.150891876E+01
 1.263899654E-01 1.416638438E+05 1.412707886E+03 1.305862671E+03 3.795763438E+05 1.863807373E+03 -8.048823547E+01
 1.264227778E-01 1.413893750E+05 1.412002441E+03 1.300664185E+03 3.806323125E+05 1.864318604E+03 -7.945761108E+01
 1.264555901E-01 1.411173750E+05 1.411307251E+03 1.295084106E+03 3.816937188E+05 1.864821289E+03 -7.842753601E+01
 1.264883876E-01 1.408536719E+05 1.410645874E+03 1.288233887E+03 3.827732812E+05 1.865295898E+03 -7.739926910E+01
 1.265211999E-01 1.405907812E+05 1.409986206E+03 1.281374023E+03 3.838510312E+05 1.865768677E+03 -7.637518311E+01
 1.265540123E-01 1.403287344E+05 1.409328369E+03 1.274504639E+03 3.849269688E+05 1.866239868E+03 -7.535528564E+01
 1.265868247E-01 1.400650156E+05 1.408666992E+03 1.267654297E+03 3.860065000E+05 1.866714355E+03 -7.432701874E+01
 1.266196370E-01 1.398071250E+05 1.408033325E+03 1.259937256E+03 3.870886562E+05 1.867166870E+03 -7.330172729E+01
 1.266524345E-01 1.395556250E+05 1.407430298E+03 1.251266846E+03 3.881736250E+05 1.867594849E+03 -7.227970886E+01
 1.266852468E-01 1.393057812E+05 1.406831055E+03 1.242581177E+03 3.892548438E+05 1.868019409E+03 -7.126629639E+01
 1.267180592E-01 1.390553281E+05 1.406230469E+03 1.233901123E+03 3.903374375E+05 1.868445190E+03 -7.024972534E+01
 1.267508715E-01 1.388038281E+05 1.405627441E+03 1.225230713E+03 3.914224062E+05 1.868873169E+03 -6.922770691E+01
 1.267836839E-01 1.385619062E+05 1.405076172E+03 1.215067383E+03 3.924930625E+05 1.869263184E+03 -6.821291351E+01
 1.268164814E-01 1.383237031E+05 1.404544922E+03 1.204327637E+03 3.935581875E+05 1.869638306E+03 -6.720090485E+01
 1.268492937E-01 1.380880312E+05 1.404019531E+03 1.193570557E+03 3.946170000E+05 1.870008423E+03 -6.620244598E+01
 1.268821061E-01 1.378501406E+05 1.403489014E+03 1.182828735E+03 3.956813438E+05 1.870383057E+03 -6.519209290E+01
 1.269149184E-01 1.376119219E+05 1.402957642E+03 1.172089111E+03 3.967465000E+05 1.870758179E+03 -6.418008423E+01
 1.269477308E-01 1.373873594E+05 1.402507690E+03 1.159235474E+03 3.977668750E+05 1.871083862E+03 -6.318057251E+01
 1.269805282E-01 1.371633438E+05 1.402060791E+03 1.146309326E+03 3.987854688E+05 1.871407715E+03 -6.218202591E+01
 1.270133406E-01 1.369420312E+05 1.401620239E+03 1.133382202E+03 3.997974062E+05 1.871726440E+03 -6.119849014E+01
 1.270461529E-01 1.367179375E+05 1.401173096E+03 1.120456055E+03 4.008162500E+05 1.872050415E+03 -6.019941330E+01
 1.270789653E-01 1.364969062E+05 1.400748413E+03 1.107228271E+03 4.018347500E+05 1.872364502E+03 -5.920339584E+01
 1.271117777E-01 1.362873281E+05 1.400407227E+03 1.092879639E+03 4.028520000E+05 1.872641846E+03 -5.821875381E+01
 1.271445751E-01 1.360786094E+05 1.400068237E+03 1.078546875E+03 4.038681250E+05 1.872917603E+03 -5.723931885E+01
 1.271773875E-01 1.358709375E+05 1.399731934E+03 1.064233032E+03 4.048829688E+05 1.873191528E+03 -5.626615906E+01
 1.272101998E-01 1.356613594E+05 1.399390625E+03 1.049884399E+03 4.059001875E+05 1.873468872E+03 -5.528151703E+01
 1.272430122E-01 1.354583281E+05 1.399122681E+03 1.036071533E+03 4.070574062E+05 1.873717773E+03 -5.430332565E+01
 1.272758245E-01 1.352630938E+05 1.398941528E+03 1.022894226E+03 4.083807812E+05 1.873932983E+03 -5.333279037E+01
 1.273086220E-01 1.350694219E+05 1.398765625E+03 1.009791748E+03 4.097088750E+05 1.874144897E+03 -5.237233353E+01
 1.273414344E-01 1.348752656E+05 1.398588135E+03 9.966661987E+02 4.110355000E+05 1.874357788E+03 -5.140877533E+01
 1.273742467E-01 1.346800312E+05 1.398407104E+03 9.834889526E+02 4.123588750E+05 1.874572998E+03 -5.043824005E+01
 1.274070591E-01 1.344943906E+05 1.398425171E+03 9.742915649E+02 4.145783750E+05 1.874673950E+03 -4.947487640E+01
 1.274398714E-01 1.343128281E+05 1.398527466E+03 9.667793579E+02 4.171773125E+05 1.874726562E+03 -4.851455307E+01
 1.274726689E-01 1.341335000E+05 1.398639771E+03 9.594499512E+02 4.198076875E+05 1.874771118E+03 -4.756929398E+01
 1.275054812E-01 1.339522656E+05 1.398743652E+03 9.519650879E+02 4.224113438E+05 1.874822510E+03 -4.661122131E+01
 1.275382936E-01 1.337707031E+05 1.398846069E+03 9.444528198E+02 4.250102812E+05 1.874875122E+03 -4.565089798E+01
 1.275711060E-01 1.336004688E+05 1.399429321E+03 9.495116577E+02 4.314171250E+05 1.874481567E+03 -4.469188309E+01
 1.276039183E-01 1.334308906E+05 1.400039307E+03 9.552678833E+02 4.380349375E+05 1.874063110E+03 -4.373313904E+01
 1.276367158E-01 1.332637656E+05 1.400664429E+03 9.614444580E+02 4.447584062E+05 1.873627563E+03 -4.279166031E+01
 1.276695281E-01 1.330941562E+05 1.401274170E+03 9.671958008E+02 4.513750000E+05 1.873209351E+03 -4.183271790E+01
 1.277023405E-01 1.329258438E+05 1.402038940E+03 9.810046387E+02 4.600595625E+05 1.872573486E+03 -4.087137604E+01
 1.277351528E-01 1.327628906E+05 1.403451538E+03 1.028495361E+03 4.773887188E+05 1.871027222E+03 -3.990000916E+01
 1.277679652E-01 1.326006250E+05 1.404869629E+03 1.076329834E+03 4.947873750E+05 1.869471558E+03 -3.893394089E+01
 1.278007627E-01 1.324393750E+05 1.406295532E+03 1.124660889E+03 5.122865000E+05 1.867902344E+03 -3.797553635E+01
 1.278335750E-01 1.322764219E+05 1.407708130E+03 1.172151611E+03 5.296156250E+05 1.866356201E+03 -3.700416565E+01
 1.278663874E-01 1.321114062E+05 1.409551392E+03 1.269278931E+03 5.553565625E+05 1.863864624E+03 -3.601960373E+01
 1.278991997E-01 1.319437188E+05 1.411946533E+03 1.430018921E+03 5.918776875E+05 1.860161621E+03 -3.501813507E+01
 1.279320121E-01 1.317772969E+05 1.414350830E+03 1.592257812E+03 6.285549375E+05 1.856429688E+03 -3.402756882E+01
 1.279648095E-01 1.316105625E+05 1.416752930E+03 1.754130493E+03 6.651940000E+05 1.852704834E+03 -3.303433609E+01
 1.279976219E-01 1.314428750E+05 1.419148071E+03 1.914870483E+03 7.017151250E+05 1.849001831E+03 -3.203286743E+01
 1.280304343E-01 1.312623438E+05 1.422044922E+03 2.218518066E+03 7.496779375E+05 1.843074341E+03 -3.100386620E+01
 1.280632466E-01 1.310758750E+05 1.425173340E+03 2.588186279E+03 8.029266250E+05 1.836119141E+03 -2.996214867E+01
 1.280960590E-01 1.308912344E+05 1.428304321E+03 2.960712402E+03 8.561210625E+05 1.829113770E+03 -2.893775177E+01